+ 0.5 0 2 tcp 40 ------- 1 0.0 3.0 0 0
- 0.5 0 2 tcp 40 ------- 1 0.0 3.0 0 0
r 0.51016 0 2 tcp 40 ------- 1 0.0 3.0 0 0
+ 0.51016 2 3 tcp 40 ------- 1 0.0 3.0 0 0
- 0.51016 2 3 tcp 40 ------- 1 0.0 3.0 0 0
r 0.53032 2 3 tcp 40 ------- 1 0.0 3.0 0 0
+ 0.53032 3 2 ack 40 ------- 1 3.0 0.0 0 1
- 0.53032 3 2 ack 40 ------- 1 3.0 0.0 0 1
r 0.55048 3 2 ack 40 ------- 1 3.0 0.0 0 1
+ 0.55048 2 0 ack 40 ------- 1 3.0 0.0 0 1
- 0.55048 2 0 ack 40 ------- 1 3.0 0.0 0 1
r 0.56064 2 0 ack 40 ------- 1 3.0 0.0 0 1
+ 0.56064 0 2 tcp 1040 ------- 1 0.0 3.0 1 2
- 0.56064 0 2 tcp 1040 ------- 1 0.0 3.0 1 2
+ 0.56064 0 2 tcp 1040 ------- 1 0.0 3.0 2 3
- 0.5648 0 2 tcp 1040 ------- 1 0.0 3.0 2 3
r 0.5748 0 2 tcp 1040 ------- 1 0.0 3.0 1 2
+ 0.5748 2 3 tcp 1040 ------- 1 0.0 3.0 1 2
- 0.5748 2 3 tcp 1040 ------- 1 0.0 3.0 1 2
r 0.57896 0 2 tcp 1040 ------- 1 0.0 3.0 2 3
+ 0.57896 2 3 tcp 1040 ------- 1 0.0 3.0 2 3
- 0.57896 2 3 tcp 1040 ------- 1 0.0 3.0 2 3
r 0.59896 2 3 tcp 1040 ------- 1 0.0 3.0 1 2
+ 0.59896 3 2 ack 40 ------- 1 3.0 0.0 1 4
- 0.59896 3 2 ack 40 ------- 1 3.0 0.0 1 4
r 0.60312 2 3 tcp 1040 ------- 1 0.0 3.0 2 3
+ 0.60312 3 2 ack 40 ------- 1 3.0 0.0 2 5
- 0.60312 3 2 ack 40 ------- 1 3.0 0.0 2 5
r 0.61912 3 2 ack 40 ------- 1 3.0 0.0 1 4
+ 0.61912 2 0 ack 40 ------- 1 3.0 0.0 1 4
- 0.61912 2 0 ack 40 ------- 1 3.0 0.0 1 4
r 0.62328 3 2 ack 40 ------- 1 3.0 0.0 2 5
+ 0.62328 2 0 ack 40 ------- 1 3.0 0.0 2 5
- 0.62328 2 0 ack 40 ------- 1 3.0 0.0 2 5
r 0.62928 2 0 ack 40 ------- 1 3.0 0.0 1 4
+ 0.62928 0 2 tcp 1040 ------- 1 0.0 3.0 3 6
- 0.62928 0 2 tcp 1040 ------- 1 0.0 3.0 3 6
+ 0.62928 0 2 tcp 1040 ------- 1 0.0 3.0 4 7
r 0.63344 2 0 ack 40 ------- 1 3.0 0.0 2 5
+ 0.63344 0 2 tcp 1040 ------- 1 0.0 3.0 5 8
+ 0.63344 0 2 tcp 1040 ------- 1 0.0 3.0 6 9
- 0.63344 0 2 tcp 1040 ------- 1 0.0 3.0 4 7
- 0.6376 0 2 tcp 1040 ------- 1 0.0 3.0 5 8
- 0.64176 0 2 tcp 1040 ------- 1 0.0 3.0 6 9
r 0.64344 0 2 tcp 1040 ------- 1 0.0 3.0 3 6
+ 0.64344 2 3 tcp 1040 ------- 1 0.0 3.0 3 6
- 0.64344 2 3 tcp 1040 ------- 1 0.0 3.0 3 6
r 0.6476 0 2 tcp 1040 ------- 1 0.0 3.0 4 7
+ 0.6476 2 3 tcp 1040 ------- 1 0.0 3.0 4 7
- 0.6476 2 3 tcp 1040 ------- 1 0.0 3.0 4 7
r 0.65176 0 2 tcp 1040 ------- 1 0.0 3.0 5 8
+ 0.65176 2 3 tcp 1040 ------- 1 0.0 3.0 5 8
- 0.65176 2 3 tcp 1040 ------- 1 0.0 3.0 5 8
r 0.65592 0 2 tcp 1040 ------- 1 0.0 3.0 6 9
+ 0.65592 2 3 tcp 1040 ------- 1 0.0 3.0 6 9
- 0.65592 2 3 tcp 1040 ------- 1 0.0 3.0 6 9
r 0.6676 2 3 tcp 1040 ------- 1 0.0 3.0 3 6
+ 0.6676 3 2 ack 40 ------- 1 3.0 0.0 3 10
- 0.6676 3 2 ack 40 ------- 1 3.0 0.0 3 10
r 0.67176 2 3 tcp 1040 ------- 1 0.0 3.0 4 7
+ 0.67176 3 2 ack 40 ------- 1 3.0 0.0 4 11
- 0.67176 3 2 ack 40 ------- 1 3.0 0.0 4 11
r 0.67592 2 3 tcp 1040 ------- 1 0.0 3.0 5 8
+ 0.67592 3 2 ack 40 ------- 1 3.0 0.0 5 12
- 0.67592 3 2 ack 40 ------- 1 3.0 0.0 5 12
r 0.68008 2 3 tcp 1040 ------- 1 0.0 3.0 6 9
+ 0.68008 3 2 ack 40 ------- 1 3.0 0.0 6 13
- 0.68008 3 2 ack 40 ------- 1 3.0 0.0 6 13
r 0.68776 3 2 ack 40 ------- 1 3.0 0.0 3 10
+ 0.68776 2 0 ack 40 ------- 1 3.0 0.0 3 10
- 0.68776 2 0 ack 40 ------- 1 3.0 0.0 3 10
r 0.69192 3 2 ack 40 ------- 1 3.0 0.0 4 11
+ 0.69192 2 0 ack 40 ------- 1 3.0 0.0 4 11
- 0.69192 2 0 ack 40 ------- 1 3.0 0.0 4 11
r 0.69608 3 2 ack 40 ------- 1 3.0 0.0 5 12
+ 0.69608 2 0 ack 40 ------- 1 3.0 0.0 5 12
- 0.69608 2 0 ack 40 ------- 1 3.0 0.0 5 12
r 0.69792 2 0 ack 40 ------- 1 3.0 0.0 3 10
+ 0.69792 0 2 tcp 1040 ------- 1 0.0 3.0 7 14
- 0.69792 0 2 tcp 1040 ------- 1 0.0 3.0 7 14
+ 0.69792 0 2 tcp 1040 ------- 1 0.0 3.0 8 15
r 0.70024 3 2 ack 40 ------- 1 3.0 0.0 6 13
+ 0.70024 2 0 ack 40 ------- 1 3.0 0.0 6 13
- 0.70024 2 0 ack 40 ------- 1 3.0 0.0 6 13
r 0.70208 2 0 ack 40 ------- 1 3.0 0.0 4 11
+ 0.70208 0 2 tcp 1040 ------- 1 0.0 3.0 9 16
+ 0.70208 0 2 tcp 1040 ------- 1 0.0 3.0 10 17
- 0.70208 0 2 tcp 1040 ------- 1 0.0 3.0 8 15
r 0.70624 2 0 ack 40 ------- 1 3.0 0.0 5 12
+ 0.70624 0 2 tcp 1040 ------- 1 0.0 3.0 11 18
+ 0.70624 0 2 tcp 1040 ------- 1 0.0 3.0 12 19
- 0.70624 0 2 tcp 1040 ------- 1 0.0 3.0 9 16
r 0.7104 2 0 ack 40 ------- 1 3.0 0.0 6 13
+ 0.7104 0 2 tcp 1040 ------- 1 0.0 3.0 13 20
+ 0.7104 0 2 tcp 1040 ------- 1 0.0 3.0 14 21
- 0.7104 0 2 tcp 1040 ------- 1 0.0 3.0 10 17
r 0.71208 0 2 tcp 1040 ------- 1 0.0 3.0 7 14
+ 0.71208 2 3 tcp 1040 ------- 1 0.0 3.0 7 14
- 0.71208 2 3 tcp 1040 ------- 1 0.0 3.0 7 14
- 0.71456 0 2 tcp 1040 ------- 1 0.0 3.0 11 18
r 0.71624 0 2 tcp 1040 ------- 1 0.0 3.0 8 15
+ 0.71624 2 3 tcp 1040 ------- 1 0.0 3.0 8 15
- 0.71624 2 3 tcp 1040 ------- 1 0.0 3.0 8 15
- 0.71872 0 2 tcp 1040 ------- 1 0.0 3.0 12 19
r 0.7204 0 2 tcp 1040 ------- 1 0.0 3.0 9 16
+ 0.7204 2 3 tcp 1040 ------- 1 0.0 3.0 9 16
- 0.7204 2 3 tcp 1040 ------- 1 0.0 3.0 9 16
- 0.72288 0 2 tcp 1040 ------- 1 0.0 3.0 13 20
r 0.72456 0 2 tcp 1040 ------- 1 0.0 3.0 10 17
+ 0.72456 2 3 tcp 1040 ------- 1 0.0 3.0 10 17
- 0.72456 2 3 tcp 1040 ------- 1 0.0 3.0 10 17
- 0.72704 0 2 tcp 1040 ------- 1 0.0 3.0 14 21
r 0.72872 0 2 tcp 1040 ------- 1 0.0 3.0 11 18
+ 0.72872 2 3 tcp 1040 ------- 1 0.0 3.0 11 18
- 0.72872 2 3 tcp 1040 ------- 1 0.0 3.0 11 18
r 0.73288 0 2 tcp 1040 ------- 1 0.0 3.0 12 19
+ 0.73288 2 3 tcp 1040 ------- 1 0.0 3.0 12 19
- 0.73288 2 3 tcp 1040 ------- 1 0.0 3.0 12 19
r 0.73624 2 3 tcp 1040 ------- 1 0.0 3.0 7 14
+ 0.73624 3 2 ack 40 ------- 1 3.0 0.0 7 22
- 0.73624 3 2 ack 40 ------- 1 3.0 0.0 7 22
r 0.73704 0 2 tcp 1040 ------- 1 0.0 3.0 13 20
+ 0.73704 2 3 tcp 1040 ------- 1 0.0 3.0 13 20
- 0.73704 2 3 tcp 1040 ------- 1 0.0 3.0 13 20
r 0.7404 2 3 tcp 1040 ------- 1 0.0 3.0 8 15
+ 0.7404 3 2 ack 40 ------- 1 3.0 0.0 8 23
- 0.7404 3 2 ack 40 ------- 1 3.0 0.0 8 23
r 0.7412 0 2 tcp 1040 ------- 1 0.0 3.0 14 21
+ 0.7412 2 3 tcp 1040 ------- 1 0.0 3.0 14 21
- 0.7412 2 3 tcp 1040 ------- 1 0.0 3.0 14 21
r 0.74456 2 3 tcp 1040 ------- 1 0.0 3.0 9 16
+ 0.74456 3 2 ack 40 ------- 1 3.0 0.0 9 24
- 0.74456 3 2 ack 40 ------- 1 3.0 0.0 9 24
r 0.74872 2 3 tcp 1040 ------- 1 0.0 3.0 10 17
+ 0.74872 3 2 ack 40 ------- 1 3.0 0.0 10 25
- 0.74872 3 2 ack 40 ------- 1 3.0 0.0 10 25
r 0.75288 2 3 tcp 1040 ------- 1 0.0 3.0 11 18
+ 0.75288 3 2 ack 40 ------- 1 3.0 0.0 11 26
- 0.75288 3 2 ack 40 ------- 1 3.0 0.0 11 26
r 0.7564 3 2 ack 40 ------- 1 3.0 0.0 7 22
+ 0.7564 2 0 ack 40 ------- 1 3.0 0.0 7 22
- 0.7564 2 0 ack 40 ------- 1 3.0 0.0 7 22
r 0.75704 2 3 tcp 1040 ------- 1 0.0 3.0 12 19
+ 0.75704 3 2 ack 40 ------- 1 3.0 0.0 12 27
- 0.75704 3 2 ack 40 ------- 1 3.0 0.0 12 27
r 0.76056 3 2 ack 40 ------- 1 3.0 0.0 8 23
+ 0.76056 2 0 ack 40 ------- 1 3.0 0.0 8 23
- 0.76056 2 0 ack 40 ------- 1 3.0 0.0 8 23
r 0.7612 2 3 tcp 1040 ------- 1 0.0 3.0 13 20
+ 0.7612 3 2 ack 40 ------- 1 3.0 0.0 13 28
- 0.7612 3 2 ack 40 ------- 1 3.0 0.0 13 28
r 0.76472 3 2 ack 40 ------- 1 3.0 0.0 9 24
+ 0.76472 2 0 ack 40 ------- 1 3.0 0.0 9 24
- 0.76472 2 0 ack 40 ------- 1 3.0 0.0 9 24
r 0.76536 2 3 tcp 1040 ------- 1 0.0 3.0 14 21
+ 0.76536 3 2 ack 40 ------- 1 3.0 0.0 14 29
- 0.76536 3 2 ack 40 ------- 1 3.0 0.0 14 29
r 0.76656 2 0 ack 40 ------- 1 3.0 0.0 7 22
+ 0.76656 0 2 tcp 1040 ------- 1 0.0 3.0 15 30
- 0.76656 0 2 tcp 1040 ------- 1 0.0 3.0 15 30
+ 0.76656 0 2 tcp 1040 ------- 1 0.0 3.0 16 31
r 0.76888 3 2 ack 40 ------- 1 3.0 0.0 10 25
+ 0.76888 2 0 ack 40 ------- 1 3.0 0.0 10 25
- 0.76888 2 0 ack 40 ------- 1 3.0 0.0 10 25
r 0.77072 2 0 ack 40 ------- 1 3.0 0.0 8 23
+ 0.77072 0 2 tcp 1040 ------- 1 0.0 3.0 17 32
+ 0.77072 0 2 tcp 1040 ------- 1 0.0 3.0 18 33
- 0.77072 0 2 tcp 1040 ------- 1 0.0 3.0 16 31
r 0.77304 3 2 ack 40 ------- 1 3.0 0.0 11 26
+ 0.77304 2 0 ack 40 ------- 1 3.0 0.0 11 26
- 0.77304 2 0 ack 40 ------- 1 3.0 0.0 11 26
r 0.77488 2 0 ack 40 ------- 1 3.0 0.0 9 24
+ 0.77488 0 2 tcp 1040 ------- 1 0.0 3.0 19 34
+ 0.77488 0 2 tcp 1040 ------- 1 0.0 3.0 20 35
- 0.77488 0 2 tcp 1040 ------- 1 0.0 3.0 17 32
r 0.7772 3 2 ack 40 ------- 1 3.0 0.0 12 27
+ 0.7772 2 0 ack 40 ------- 1 3.0 0.0 12 27
- 0.7772 2 0 ack 40 ------- 1 3.0 0.0 12 27
r 0.77904 2 0 ack 40 ------- 1 3.0 0.0 10 25
+ 0.77904 0 2 tcp 1040 ------- 1 0.0 3.0 21 36
+ 0.77904 0 2 tcp 1040 ------- 1 0.0 3.0 22 37
- 0.77904 0 2 tcp 1040 ------- 1 0.0 3.0 18 33
r 0.78072 0 2 tcp 1040 ------- 1 0.0 3.0 15 30
+ 0.78072 2 3 tcp 1040 ------- 1 0.0 3.0 15 30
- 0.78072 2 3 tcp 1040 ------- 1 0.0 3.0 15 30
r 0.78136 3 2 ack 40 ------- 1 3.0 0.0 13 28
+ 0.78136 2 0 ack 40 ------- 1 3.0 0.0 13 28
- 0.78136 2 0 ack 40 ------- 1 3.0 0.0 13 28
r 0.7832 2 0 ack 40 ------- 1 3.0 0.0 11 26
+ 0.7832 0 2 tcp 1040 ------- 1 0.0 3.0 23 38
+ 0.7832 0 2 tcp 1040 ------- 1 0.0 3.0 24 39
- 0.7832 0 2 tcp 1040 ------- 1 0.0 3.0 19 34
r 0.78488 0 2 tcp 1040 ------- 1 0.0 3.0 16 31
+ 0.78488 2 3 tcp 1040 ------- 1 0.0 3.0 16 31
- 0.78488 2 3 tcp 1040 ------- 1 0.0 3.0 16 31
r 0.78552 3 2 ack 40 ------- 1 3.0 0.0 14 29
+ 0.78552 2 0 ack 40 ------- 1 3.0 0.0 14 29
- 0.78552 2 0 ack 40 ------- 1 3.0 0.0 14 29
r 0.78736 2 0 ack 40 ------- 1 3.0 0.0 12 27
+ 0.78736 0 2 tcp 1040 ------- 1 0.0 3.0 25 40
+ 0.78736 0 2 tcp 1040 ------- 1 0.0 3.0 26 41
- 0.78736 0 2 tcp 1040 ------- 1 0.0 3.0 20 35
r 0.78904 0 2 tcp 1040 ------- 1 0.0 3.0 17 32
+ 0.78904 2 3 tcp 1040 ------- 1 0.0 3.0 17 32
- 0.78904 2 3 tcp 1040 ------- 1 0.0 3.0 17 32
r 0.79152 2 0 ack 40 ------- 1 3.0 0.0 13 28
+ 0.79152 0 2 tcp 1040 ------- 1 0.0 3.0 27 42
+ 0.79152 0 2 tcp 1040 ------- 1 0.0 3.0 28 43
- 0.79152 0 2 tcp 1040 ------- 1 0.0 3.0 21 36
r 0.7932 0 2 tcp 1040 ------- 1 0.0 3.0 18 33
+ 0.7932 2 3 tcp 1040 ------- 1 0.0 3.0 18 33
- 0.7932 2 3 tcp 1040 ------- 1 0.0 3.0 18 33
r 0.79568 2 0 ack 40 ------- 1 3.0 0.0 14 29
+ 0.79568 0 2 tcp 1040 ------- 1 0.0 3.0 29 44
+ 0.79568 0 2 tcp 1040 ------- 1 0.0 3.0 30 45
- 0.79568 0 2 tcp 1040 ------- 1 0.0 3.0 22 37
r 0.79736 0 2 tcp 1040 ------- 1 0.0 3.0 19 34
+ 0.79736 2 3 tcp 1040 ------- 1 0.0 3.0 19 34
- 0.79736 2 3 tcp 1040 ------- 1 0.0 3.0 19 34
- 0.79984 0 2 tcp 1040 ------- 1 0.0 3.0 23 38
r 0.80152 0 2 tcp 1040 ------- 1 0.0 3.0 20 35
+ 0.80152 2 3 tcp 1040 ------- 1 0.0 3.0 20 35
- 0.80152 2 3 tcp 1040 ------- 1 0.0 3.0 20 35
- 0.804 0 2 tcp 1040 ------- 1 0.0 3.0 24 39
r 0.80488 2 3 tcp 1040 ------- 1 0.0 3.0 15 30
+ 0.80488 3 2 ack 40 ------- 1 3.0 0.0 15 46
- 0.80488 3 2 ack 40 ------- 1 3.0 0.0 15 46
r 0.80568 0 2 tcp 1040 ------- 1 0.0 3.0 21 36
+ 0.80568 2 3 tcp 1040 ------- 1 0.0 3.0 21 36
- 0.80568 2 3 tcp 1040 ------- 1 0.0 3.0 21 36
- 0.80816 0 2 tcp 1040 ------- 1 0.0 3.0 25 40
r 0.80904 2 3 tcp 1040 ------- 1 0.0 3.0 16 31
+ 0.80904 3 2 ack 40 ------- 1 3.0 0.0 16 47
- 0.80904 3 2 ack 40 ------- 1 3.0 0.0 16 47
r 0.80984 0 2 tcp 1040 ------- 1 0.0 3.0 22 37
+ 0.80984 2 3 tcp 1040 ------- 1 0.0 3.0 22 37
- 0.80984 2 3 tcp 1040 ------- 1 0.0 3.0 22 37
- 0.81232 0 2 tcp 1040 ------- 1 0.0 3.0 26 41
r 0.8132 2 3 tcp 1040 ------- 1 0.0 3.0 17 32
+ 0.8132 3 2 ack 40 ------- 1 3.0 0.0 17 48
- 0.8132 3 2 ack 40 ------- 1 3.0 0.0 17 48
r 0.814 0 2 tcp 1040 ------- 1 0.0 3.0 23 38
+ 0.814 2 3 tcp 1040 ------- 1 0.0 3.0 23 38
- 0.814 2 3 tcp 1040 ------- 1 0.0 3.0 23 38
- 0.81648 0 2 tcp 1040 ------- 1 0.0 3.0 27 42
r 0.81736 2 3 tcp 1040 ------- 1 0.0 3.0 18 33
+ 0.81736 3 2 ack 40 ------- 1 3.0 0.0 18 49
- 0.81736 3 2 ack 40 ------- 1 3.0 0.0 18 49
r 0.81816 0 2 tcp 1040 ------- 1 0.0 3.0 24 39
+ 0.81816 2 3 tcp 1040 ------- 1 0.0 3.0 24 39
- 0.81816 2 3 tcp 1040 ------- 1 0.0 3.0 24 39
- 0.82064 0 2 tcp 1040 ------- 1 0.0 3.0 28 43
r 0.82152 2 3 tcp 1040 ------- 1 0.0 3.0 19 34
+ 0.82152 3 2 ack 40 ------- 1 3.0 0.0 19 50
- 0.82152 3 2 ack 40 ------- 1 3.0 0.0 19 50
r 0.82232 0 2 tcp 1040 ------- 1 0.0 3.0 25 40
+ 0.82232 2 3 tcp 1040 ------- 1 0.0 3.0 25 40
- 0.82232 2 3 tcp 1040 ------- 1 0.0 3.0 25 40
- 0.8248 0 2 tcp 1040 ------- 1 0.0 3.0 29 44
r 0.82504 3 2 ack 40 ------- 1 3.0 0.0 15 46
+ 0.82504 2 0 ack 40 ------- 1 3.0 0.0 15 46
- 0.82504 2 0 ack 40 ------- 1 3.0 0.0 15 46
r 0.82568 2 3 tcp 1040 ------- 1 0.0 3.0 20 35
+ 0.82568 3 2 ack 40 ------- 1 3.0 0.0 20 51
- 0.82568 3 2 ack 40 ------- 1 3.0 0.0 20 51
r 0.82648 0 2 tcp 1040 ------- 1 0.0 3.0 26 41
+ 0.82648 2 3 tcp 1040 ------- 1 0.0 3.0 26 41
- 0.82648 2 3 tcp 1040 ------- 1 0.0 3.0 26 41
- 0.82896 0 2 tcp 1040 ------- 1 0.0 3.0 30 45
r 0.8292 3 2 ack 40 ------- 1 3.0 0.0 16 47
+ 0.8292 2 0 ack 40 ------- 1 3.0 0.0 16 47
- 0.8292 2 0 ack 40 ------- 1 3.0 0.0 16 47
r 0.82984 2 3 tcp 1040 ------- 1 0.0 3.0 21 36
+ 0.82984 3 2 ack 40 ------- 1 3.0 0.0 21 52
- 0.82984 3 2 ack 40 ------- 1 3.0 0.0 21 52
r 0.83064 0 2 tcp 1040 ------- 1 0.0 3.0 27 42
+ 0.83064 2 3 tcp 1040 ------- 1 0.0 3.0 27 42
- 0.83064 2 3 tcp 1040 ------- 1 0.0 3.0 27 42
r 0.83336 3 2 ack 40 ------- 1 3.0 0.0 17 48
+ 0.83336 2 0 ack 40 ------- 1 3.0 0.0 17 48
- 0.83336 2 0 ack 40 ------- 1 3.0 0.0 17 48
r 0.834 2 3 tcp 1040 ------- 1 0.0 3.0 22 37
+ 0.834 3 2 ack 40 ------- 1 3.0 0.0 22 53
- 0.834 3 2 ack 40 ------- 1 3.0 0.0 22 53
r 0.8348 0 2 tcp 1040 ------- 1 0.0 3.0 28 43
+ 0.8348 2 3 tcp 1040 ------- 1 0.0 3.0 28 43
- 0.8348 2 3 tcp 1040 ------- 1 0.0 3.0 28 43
r 0.8352 2 0 ack 40 ------- 1 3.0 0.0 15 46
+ 0.8352 0 2 tcp 1040 ------- 1 0.0 3.0 31 54
- 0.8352 0 2 tcp 1040 ------- 1 0.0 3.0 31 54
+ 0.8352 0 2 tcp 1040 ------- 1 0.0 3.0 32 55
r 0.83752 3 2 ack 40 ------- 1 3.0 0.0 18 49
+ 0.83752 2 0 ack 40 ------- 1 3.0 0.0 18 49
- 0.83752 2 0 ack 40 ------- 1 3.0 0.0 18 49
r 0.83816 2 3 tcp 1040 ------- 1 0.0 3.0 23 38
+ 0.83816 3 2 ack 40 ------- 1 3.0 0.0 23 56
- 0.83816 3 2 ack 40 ------- 1 3.0 0.0 23 56
r 0.83896 0 2 tcp 1040 ------- 1 0.0 3.0 29 44
+ 0.83896 2 3 tcp 1040 ------- 1 0.0 3.0 29 44
- 0.83896 2 3 tcp 1040 ------- 1 0.0 3.0 29 44
r 0.83936 2 0 ack 40 ------- 1 3.0 0.0 16 47
+ 0.83936 0 2 tcp 1040 ------- 1 0.0 3.0 33 57
+ 0.83936 0 2 tcp 1040 ------- 1 0.0 3.0 34 58
- 0.83936 0 2 tcp 1040 ------- 1 0.0 3.0 32 55
r 0.84168 3 2 ack 40 ------- 1 3.0 0.0 19 50
+ 0.84168 2 0 ack 40 ------- 1 3.0 0.0 19 50
- 0.84168 2 0 ack 40 ------- 1 3.0 0.0 19 50
r 0.84232 2 3 tcp 1040 ------- 1 0.0 3.0 24 39
+ 0.84232 3 2 ack 40 ------- 1 3.0 0.0 24 59
- 0.84232 3 2 ack 40 ------- 1 3.0 0.0 24 59
r 0.84312 0 2 tcp 1040 ------- 1 0.0 3.0 30 45
+ 0.84312 2 3 tcp 1040 ------- 1 0.0 3.0 30 45
- 0.84312 2 3 tcp 1040 ------- 1 0.0 3.0 30 45
r 0.84352 2 0 ack 40 ------- 1 3.0 0.0 17 48
+ 0.84352 0 2 tcp 1040 ------- 1 0.0 3.0 35 60
+ 0.84352 0 2 tcp 1040 ------- 1 0.0 3.0 36 61
- 0.84352 0 2 tcp 1040 ------- 1 0.0 3.0 33 57
r 0.84584 3 2 ack 40 ------- 1 3.0 0.0 20 51
+ 0.84584 2 0 ack 40 ------- 1 3.0 0.0 20 51
- 0.84584 2 0 ack 40 ------- 1 3.0 0.0 20 51
r 0.84648 2 3 tcp 1040 ------- 1 0.0 3.0 25 40
+ 0.84648 3 2 ack 40 ------- 1 3.0 0.0 25 62
- 0.84648 3 2 ack 40 ------- 1 3.0 0.0 25 62
r 0.84768 2 0 ack 40 ------- 1 3.0 0.0 18 49
+ 0.84768 0 2 tcp 1040 ------- 1 0.0 3.0 37 63
+ 0.84768 0 2 tcp 1040 ------- 1 0.0 3.0 38 64
- 0.84768 0 2 tcp 1040 ------- 1 0.0 3.0 34 58
r 0.84936 0 2 tcp 1040 ------- 1 0.0 3.0 31 54
+ 0.84936 2 3 tcp 1040 ------- 1 0.0 3.0 31 54
- 0.84936 2 3 tcp 1040 ------- 1 0.0 3.0 31 54
r 0.85 3 2 ack 40 ------- 1 3.0 0.0 21 52
+ 0.85 2 0 ack 40 ------- 1 3.0 0.0 21 52
- 0.85 2 0 ack 40 ------- 1 3.0 0.0 21 52
r 0.85064 2 3 tcp 1040 ------- 1 0.0 3.0 26 41
+ 0.85064 3 2 ack 40 ------- 1 3.0 0.0 26 65
- 0.85064 3 2 ack 40 ------- 1 3.0 0.0 26 65
r 0.85184 2 0 ack 40 ------- 1 3.0 0.0 19 50
+ 0.85184 0 2 tcp 1040 ------- 1 0.0 3.0 39 66
- 0.85184 0 2 tcp 1040 ------- 1 0.0 3.0 35 60
r 0.85352 0 2 tcp 1040 ------- 1 0.0 3.0 32 55
+ 0.85352 2 3 tcp 1040 ------- 1 0.0 3.0 32 55
- 0.85352 2 3 tcp 1040 ------- 1 0.0 3.0 32 55
r 0.85416 3 2 ack 40 ------- 1 3.0 0.0 22 53
+ 0.85416 2 0 ack 40 ------- 1 3.0 0.0 22 53
- 0.85416 2 0 ack 40 ------- 1 3.0 0.0 22 53
r 0.8548 2 3 tcp 1040 ------- 1 0.0 3.0 27 42
+ 0.8548 3 2 ack 40 ------- 1 3.0 0.0 27 67
- 0.8548 3 2 ack 40 ------- 1 3.0 0.0 27 67
r 0.856 2 0 ack 40 ------- 1 3.0 0.0 20 51
+ 0.856 0 2 tcp 1040 ------- 1 0.0 3.0 40 68
- 0.856 0 2 tcp 1040 ------- 1 0.0 3.0 36 61
r 0.85768 0 2 tcp 1040 ------- 1 0.0 3.0 33 57
+ 0.85768 2 3 tcp 1040 ------- 1 0.0 3.0 33 57
- 0.85768 2 3 tcp 1040 ------- 1 0.0 3.0 33 57
r 0.85832 3 2 ack 40 ------- 1 3.0 0.0 23 56
+ 0.85832 2 0 ack 40 ------- 1 3.0 0.0 23 56
- 0.85832 2 0 ack 40 ------- 1 3.0 0.0 23 56
r 0.85896 2 3 tcp 1040 ------- 1 0.0 3.0 28 43
+ 0.85896 3 2 ack 40 ------- 1 3.0 0.0 28 69
- 0.85896 3 2 ack 40 ------- 1 3.0 0.0 28 69
r 0.86016 2 0 ack 40 ------- 1 3.0 0.0 21 52
+ 0.86016 0 2 tcp 1040 ------- 1 0.0 3.0 41 70
- 0.86016 0 2 tcp 1040 ------- 1 0.0 3.0 37 63
r 0.86184 0 2 tcp 1040 ------- 1 0.0 3.0 34 58
+ 0.86184 2 3 tcp 1040 ------- 1 0.0 3.0 34 58
- 0.86184 2 3 tcp 1040 ------- 1 0.0 3.0 34 58
r 0.86248 3 2 ack 40 ------- 1 3.0 0.0 24 59
+ 0.86248 2 0 ack 40 ------- 1 3.0 0.0 24 59
- 0.86248 2 0 ack 40 ------- 1 3.0 0.0 24 59
r 0.86312 2 3 tcp 1040 ------- 1 0.0 3.0 29 44
+ 0.86312 3 2 ack 40 ------- 1 3.0 0.0 29 71
- 0.86312 3 2 ack 40 ------- 1 3.0 0.0 29 71
r 0.86432 2 0 ack 40 ------- 1 3.0 0.0 22 53
+ 0.86432 0 2 tcp 1040 ------- 1 0.0 3.0 42 72
- 0.86432 0 2 tcp 1040 ------- 1 0.0 3.0 38 64
r 0.866 0 2 tcp 1040 ------- 1 0.0 3.0 35 60
+ 0.866 2 3 tcp 1040 ------- 1 0.0 3.0 35 60
- 0.866 2 3 tcp 1040 ------- 1 0.0 3.0 35 60
r 0.86664 3 2 ack 40 ------- 1 3.0 0.0 25 62
+ 0.86664 2 0 ack 40 ------- 1 3.0 0.0 25 62
- 0.86664 2 0 ack 40 ------- 1 3.0 0.0 25 62
r 0.86728 2 3 tcp 1040 ------- 1 0.0 3.0 30 45
+ 0.86728 3 2 ack 40 ------- 1 3.0 0.0 30 73
- 0.86728 3 2 ack 40 ------- 1 3.0 0.0 30 73
r 0.86848 2 0 ack 40 ------- 1 3.0 0.0 23 56
+ 0.86848 0 2 tcp 1040 ------- 1 0.0 3.0 43 74
- 0.86848 0 2 tcp 1040 ------- 1 0.0 3.0 39 66
r 0.87016 0 2 tcp 1040 ------- 1 0.0 3.0 36 61
+ 0.87016 2 3 tcp 1040 ------- 1 0.0 3.0 36 61
- 0.87016 2 3 tcp 1040 ------- 1 0.0 3.0 36 61
r 0.8708 3 2 ack 40 ------- 1 3.0 0.0 26 65
+ 0.8708 2 0 ack 40 ------- 1 3.0 0.0 26 65
- 0.8708 2 0 ack 40 ------- 1 3.0 0.0 26 65
r 0.87264 2 0 ack 40 ------- 1 3.0 0.0 24 59
+ 0.87264 0 2 tcp 1040 ------- 1 0.0 3.0 44 75
- 0.87264 0 2 tcp 1040 ------- 1 0.0 3.0 40 68
r 0.87352 2 3 tcp 1040 ------- 1 0.0 3.0 31 54
+ 0.87352 3 2 ack 40 ------- 1 3.0 0.0 31 76
- 0.87352 3 2 ack 40 ------- 1 3.0 0.0 31 76
r 0.87432 0 2 tcp 1040 ------- 1 0.0 3.0 37 63
+ 0.87432 2 3 tcp 1040 ------- 1 0.0 3.0 37 63
- 0.87432 2 3 tcp 1040 ------- 1 0.0 3.0 37 63
r 0.87496 3 2 ack 40 ------- 1 3.0 0.0 27 67
+ 0.87496 2 0 ack 40 ------- 1 3.0 0.0 27 67
- 0.87496 2 0 ack 40 ------- 1 3.0 0.0 27 67
r 0.8768 2 0 ack 40 ------- 1 3.0 0.0 25 62
+ 0.8768 0 2 tcp 1040 ------- 1 0.0 3.0 45 77
- 0.8768 0 2 tcp 1040 ------- 1 0.0 3.0 41 70
r 0.87768 2 3 tcp 1040 ------- 1 0.0 3.0 32 55
+ 0.87768 3 2 ack 40 ------- 1 3.0 0.0 32 78
- 0.87768 3 2 ack 40 ------- 1 3.0 0.0 32 78
r 0.87848 0 2 tcp 1040 ------- 1 0.0 3.0 38 64
+ 0.87848 2 3 tcp 1040 ------- 1 0.0 3.0 38 64
- 0.87848 2 3 tcp 1040 ------- 1 0.0 3.0 38 64
r 0.87912 3 2 ack 40 ------- 1 3.0 0.0 28 69
+ 0.87912 2 0 ack 40 ------- 1 3.0 0.0 28 69
- 0.87912 2 0 ack 40 ------- 1 3.0 0.0 28 69
r 0.88096 2 0 ack 40 ------- 1 3.0 0.0 26 65
+ 0.88096 0 2 tcp 1040 ------- 1 0.0 3.0 46 79
- 0.88096 0 2 tcp 1040 ------- 1 0.0 3.0 42 72
r 0.88184 2 3 tcp 1040 ------- 1 0.0 3.0 33 57
+ 0.88184 3 2 ack 40 ------- 1 3.0 0.0 33 80
- 0.88184 3 2 ack 40 ------- 1 3.0 0.0 33 80
r 0.88264 0 2 tcp 1040 ------- 1 0.0 3.0 39 66
+ 0.88264 2 3 tcp 1040 ------- 1 0.0 3.0 39 66
- 0.88264 2 3 tcp 1040 ------- 1 0.0 3.0 39 66
r 0.88328 3 2 ack 40 ------- 1 3.0 0.0 29 71
+ 0.88328 2 0 ack 40 ------- 1 3.0 0.0 29 71
- 0.88328 2 0 ack 40 ------- 1 3.0 0.0 29 71
r 0.88512 2 0 ack 40 ------- 1 3.0 0.0 27 67
+ 0.88512 0 2 tcp 1040 ------- 1 0.0 3.0 47 81
- 0.88512 0 2 tcp 1040 ------- 1 0.0 3.0 43 74
r 0.886 2 3 tcp 1040 ------- 1 0.0 3.0 34 58
+ 0.886 3 2 ack 40 ------- 1 3.0 0.0 34 82
- 0.886 3 2 ack 40 ------- 1 3.0 0.0 34 82
r 0.8868 0 2 tcp 1040 ------- 1 0.0 3.0 40 68
+ 0.8868 2 3 tcp 1040 ------- 1 0.0 3.0 40 68
- 0.8868 2 3 tcp 1040 ------- 1 0.0 3.0 40 68
r 0.88744 3 2 ack 40 ------- 1 3.0 0.0 30 73
+ 0.88744 2 0 ack 40 ------- 1 3.0 0.0 30 73
- 0.88744 2 0 ack 40 ------- 1 3.0 0.0 30 73
r 0.88928 2 0 ack 40 ------- 1 3.0 0.0 28 69
+ 0.88928 0 2 tcp 1040 ------- 1 0.0 3.0 48 83
- 0.88928 0 2 tcp 1040 ------- 1 0.0 3.0 44 75
r 0.89016 2 3 tcp 1040 ------- 1 0.0 3.0 35 60
+ 0.89016 3 2 ack 40 ------- 1 3.0 0.0 35 84
- 0.89016 3 2 ack 40 ------- 1 3.0 0.0 35 84
r 0.89096 0 2 tcp 1040 ------- 1 0.0 3.0 41 70
+ 0.89096 2 3 tcp 1040 ------- 1 0.0 3.0 41 70
- 0.89096 2 3 tcp 1040 ------- 1 0.0 3.0 41 70
r 0.89344 2 0 ack 40 ------- 1 3.0 0.0 29 71
+ 0.89344 0 2 tcp 1040 ------- 1 0.0 3.0 49 85
- 0.89344 0 2 tcp 1040 ------- 1 0.0 3.0 45 77
r 0.89368 3 2 ack 40 ------- 1 3.0 0.0 31 76
+ 0.89368 2 0 ack 40 ------- 1 3.0 0.0 31 76
- 0.89368 2 0 ack 40 ------- 1 3.0 0.0 31 76
r 0.89432 2 3 tcp 1040 ------- 1 0.0 3.0 36 61
+ 0.89432 3 2 ack 40 ------- 1 3.0 0.0 36 86
- 0.89432 3 2 ack 40 ------- 1 3.0 0.0 36 86
r 0.89512 0 2 tcp 1040 ------- 1 0.0 3.0 42 72
+ 0.89512 2 3 tcp 1040 ------- 1 0.0 3.0 42 72
- 0.89512 2 3 tcp 1040 ------- 1 0.0 3.0 42 72
r 0.8976 2 0 ack 40 ------- 1 3.0 0.0 30 73
+ 0.8976 0 2 tcp 1040 ------- 1 0.0 3.0 50 87
- 0.8976 0 2 tcp 1040 ------- 1 0.0 3.0 46 79
r 0.89784 3 2 ack 40 ------- 1 3.0 0.0 32 78
+ 0.89784 2 0 ack 40 ------- 1 3.0 0.0 32 78
- 0.89784 2 0 ack 40 ------- 1 3.0 0.0 32 78
r 0.89848 2 3 tcp 1040 ------- 1 0.0 3.0 37 63
+ 0.89848 3 2 ack 40 ------- 1 3.0 0.0 37 88
- 0.89848 3 2 ack 40 ------- 1 3.0 0.0 37 88
r 0.89928 0 2 tcp 1040 ------- 1 0.0 3.0 43 74
+ 0.89928 2 3 tcp 1040 ------- 1 0.0 3.0 43 74
- 0.89928 2 3 tcp 1040 ------- 1 0.0 3.0 43 74
- 0.90176 0 2 tcp 1040 ------- 1 0.0 3.0 47 81
r 0.902 3 2 ack 40 ------- 1 3.0 0.0 33 80
+ 0.902 2 0 ack 40 ------- 1 3.0 0.0 33 80
- 0.902 2 0 ack 40 ------- 1 3.0 0.0 33 80
r 0.90264 2 3 tcp 1040 ------- 1 0.0 3.0 38 64
+ 0.90264 3 2 ack 40 ------- 1 3.0 0.0 38 89
- 0.90264 3 2 ack 40 ------- 1 3.0 0.0 38 89
r 0.90344 0 2 tcp 1040 ------- 1 0.0 3.0 44 75
+ 0.90344 2 3 tcp 1040 ------- 1 0.0 3.0 44 75
- 0.90344 2 3 tcp 1040 ------- 1 0.0 3.0 44 75
r 0.90384 2 0 ack 40 ------- 1 3.0 0.0 31 76
+ 0.90384 0 2 tcp 1040 ------- 1 0.0 3.0 51 90
- 0.90592 0 2 tcp 1040 ------- 1 0.0 3.0 48 83
r 0.90616 3 2 ack 40 ------- 1 3.0 0.0 34 82
+ 0.90616 2 0 ack 40 ------- 1 3.0 0.0 34 82
- 0.90616 2 0 ack 40 ------- 1 3.0 0.0 34 82
r 0.9068 2 3 tcp 1040 ------- 1 0.0 3.0 39 66
+ 0.9068 3 2 ack 40 ------- 1 3.0 0.0 39 91
- 0.9068 3 2 ack 40 ------- 1 3.0 0.0 39 91
r 0.9076 0 2 tcp 1040 ------- 1 0.0 3.0 45 77
+ 0.9076 2 3 tcp 1040 ------- 1 0.0 3.0 45 77
- 0.9076 2 3 tcp 1040 ------- 1 0.0 3.0 45 77
r 0.908 2 0 ack 40 ------- 1 3.0 0.0 32 78
+ 0.908 0 2 tcp 1040 ------- 1 0.0 3.0 52 92
- 0.91008 0 2 tcp 1040 ------- 1 0.0 3.0 49 85
r 0.91032 3 2 ack 40 ------- 1 3.0 0.0 35 84
+ 0.91032 2 0 ack 40 ------- 1 3.0 0.0 35 84
- 0.91032 2 0 ack 40 ------- 1 3.0 0.0 35 84
r 0.91096 2 3 tcp 1040 ------- 1 0.0 3.0 40 68
+ 0.91096 3 2 ack 40 ------- 1 3.0 0.0 40 93
- 0.91096 3 2 ack 40 ------- 1 3.0 0.0 40 93
r 0.91176 0 2 tcp 1040 ------- 1 0.0 3.0 46 79
+ 0.91176 2 3 tcp 1040 ------- 1 0.0 3.0 46 79
- 0.91176 2 3 tcp 1040 ------- 1 0.0 3.0 46 79
r 0.91216 2 0 ack 40 ------- 1 3.0 0.0 33 80
+ 0.91216 0 2 tcp 1040 ------- 1 0.0 3.0 53 94
- 0.91424 0 2 tcp 1040 ------- 1 0.0 3.0 50 87
r 0.91448 3 2 ack 40 ------- 1 3.0 0.0 36 86
+ 0.91448 2 0 ack 40 ------- 1 3.0 0.0 36 86
- 0.91448 2 0 ack 40 ------- 1 3.0 0.0 36 86
r 0.91512 2 3 tcp 1040 ------- 1 0.0 3.0 41 70
+ 0.91512 3 2 ack 40 ------- 1 3.0 0.0 41 95
- 0.91512 3 2 ack 40 ------- 1 3.0 0.0 41 95
r 0.91592 0 2 tcp 1040 ------- 1 0.0 3.0 47 81
+ 0.91592 2 3 tcp 1040 ------- 1 0.0 3.0 47 81
- 0.91592 2 3 tcp 1040 ------- 1 0.0 3.0 47 81
r 0.91632 2 0 ack 40 ------- 1 3.0 0.0 34 82
+ 0.91632 0 2 tcp 1040 ------- 1 0.0 3.0 54 96
- 0.9184 0 2 tcp 1040 ------- 1 0.0 3.0 51 90
r 0.91864 3 2 ack 40 ------- 1 3.0 0.0 37 88
+ 0.91864 2 0 ack 40 ------- 1 3.0 0.0 37 88
- 0.91864 2 0 ack 40 ------- 1 3.0 0.0 37 88
r 0.91928 2 3 tcp 1040 ------- 1 0.0 3.0 42 72
+ 0.91928 3 2 ack 40 ------- 1 3.0 0.0 42 97
- 0.91928 3 2 ack 40 ------- 1 3.0 0.0 42 97
r 0.92008 0 2 tcp 1040 ------- 1 0.0 3.0 48 83
+ 0.92008 2 3 tcp 1040 ------- 1 0.0 3.0 48 83
- 0.92008 2 3 tcp 1040 ------- 1 0.0 3.0 48 83
r 0.92048 2 0 ack 40 ------- 1 3.0 0.0 35 84
+ 0.92048 0 2 tcp 1040 ------- 1 0.0 3.0 55 98
- 0.92256 0 2 tcp 1040 ------- 1 0.0 3.0 52 92
r 0.9228 3 2 ack 40 ------- 1 3.0 0.0 38 89
+ 0.9228 2 0 ack 40 ------- 1 3.0 0.0 38 89
- 0.9228 2 0 ack 40 ------- 1 3.0 0.0 38 89
r 0.92344 2 3 tcp 1040 ------- 1 0.0 3.0 43 74
+ 0.92344 3 2 ack 40 ------- 1 3.0 0.0 43 99
- 0.92344 3 2 ack 40 ------- 1 3.0 0.0 43 99
r 0.92424 0 2 tcp 1040 ------- 1 0.0 3.0 49 85
+ 0.92424 2 3 tcp 1040 ------- 1 0.0 3.0 49 85
- 0.92424 2 3 tcp 1040 ------- 1 0.0 3.0 49 85
r 0.92464 2 0 ack 40 ------- 1 3.0 0.0 36 86
+ 0.92464 0 2 tcp 1040 ------- 1 0.0 3.0 56 100
- 0.92672 0 2 tcp 1040 ------- 1 0.0 3.0 53 94
r 0.92696 3 2 ack 40 ------- 1 3.0 0.0 39 91
+ 0.92696 2 0 ack 40 ------- 1 3.0 0.0 39 91
- 0.92696 2 0 ack 40 ------- 1 3.0 0.0 39 91
r 0.9276 2 3 tcp 1040 ------- 1 0.0 3.0 44 75
+ 0.9276 3 2 ack 40 ------- 1 3.0 0.0 44 101
- 0.9276 3 2 ack 40 ------- 1 3.0 0.0 44 101
r 0.9284 0 2 tcp 1040 ------- 1 0.0 3.0 50 87
+ 0.9284 2 3 tcp 1040 ------- 1 0.0 3.0 50 87
- 0.9284 2 3 tcp 1040 ------- 1 0.0 3.0 50 87
r 0.9288 2 0 ack 40 ------- 1 3.0 0.0 37 88
+ 0.9288 0 2 tcp 1040 ------- 1 0.0 3.0 57 102
- 0.93088 0 2 tcp 1040 ------- 1 0.0 3.0 54 96
r 0.93112 3 2 ack 40 ------- 1 3.0 0.0 40 93
+ 0.93112 2 0 ack 40 ------- 1 3.0 0.0 40 93
- 0.93112 2 0 ack 40 ------- 1 3.0 0.0 40 93
r 0.93176 2 3 tcp 1040 ------- 1 0.0 3.0 45 77
+ 0.93176 3 2 ack 40 ------- 1 3.0 0.0 45 103
- 0.93176 3 2 ack 40 ------- 1 3.0 0.0 45 103
r 0.93256 0 2 tcp 1040 ------- 1 0.0 3.0 51 90
+ 0.93256 2 3 tcp 1040 ------- 1 0.0 3.0 51 90
- 0.93256 2 3 tcp 1040 ------- 1 0.0 3.0 51 90
r 0.93296 2 0 ack 40 ------- 1 3.0 0.0 38 89
+ 0.93296 0 2 tcp 1040 ------- 1 0.0 3.0 58 104
- 0.93504 0 2 tcp 1040 ------- 1 0.0 3.0 55 98
r 0.93528 3 2 ack 40 ------- 1 3.0 0.0 41 95
+ 0.93528 2 0 ack 40 ------- 1 3.0 0.0 41 95
- 0.93528 2 0 ack 40 ------- 1 3.0 0.0 41 95
r 0.93592 2 3 tcp 1040 ------- 1 0.0 3.0 46 79
+ 0.93592 3 2 ack 40 ------- 1 3.0 0.0 46 105
- 0.93592 3 2 ack 40 ------- 1 3.0 0.0 46 105
r 0.93672 0 2 tcp 1040 ------- 1 0.0 3.0 52 92
+ 0.93672 2 3 tcp 1040 ------- 1 0.0 3.0 52 92
- 0.93672 2 3 tcp 1040 ------- 1 0.0 3.0 52 92
r 0.93712 2 0 ack 40 ------- 1 3.0 0.0 39 91
+ 0.93712 0 2 tcp 1040 ------- 1 0.0 3.0 59 106
- 0.9392 0 2 tcp 1040 ------- 1 0.0 3.0 56 100
r 0.93944 3 2 ack 40 ------- 1 3.0 0.0 42 97
+ 0.93944 2 0 ack 40 ------- 1 3.0 0.0 42 97
- 0.93944 2 0 ack 40 ------- 1 3.0 0.0 42 97
r 0.94008 2 3 tcp 1040 ------- 1 0.0 3.0 47 81
+ 0.94008 3 2 ack 40 ------- 1 3.0 0.0 47 107
- 0.94008 3 2 ack 40 ------- 1 3.0 0.0 47 107
r 0.94088 0 2 tcp 1040 ------- 1 0.0 3.0 53 94
+ 0.94088 2 3 tcp 1040 ------- 1 0.0 3.0 53 94
- 0.94088 2 3 tcp 1040 ------- 1 0.0 3.0 53 94
r 0.94128 2 0 ack 40 ------- 1 3.0 0.0 40 93
+ 0.94128 0 2 tcp 1040 ------- 1 0.0 3.0 60 108
- 0.94336 0 2 tcp 1040 ------- 1 0.0 3.0 57 102
r 0.9436 3 2 ack 40 ------- 1 3.0 0.0 43 99
+ 0.9436 2 0 ack 40 ------- 1 3.0 0.0 43 99
- 0.9436 2 0 ack 40 ------- 1 3.0 0.0 43 99
r 0.94424 2 3 tcp 1040 ------- 1 0.0 3.0 48 83
+ 0.94424 3 2 ack 40 ------- 1 3.0 0.0 48 109
- 0.94424 3 2 ack 40 ------- 1 3.0 0.0 48 109
r 0.94504 0 2 tcp 1040 ------- 1 0.0 3.0 54 96
+ 0.94504 2 3 tcp 1040 ------- 1 0.0 3.0 54 96
- 0.94504 2 3 tcp 1040 ------- 1 0.0 3.0 54 96
r 0.94544 2 0 ack 40 ------- 1 3.0 0.0 41 95
+ 0.94544 0 2 tcp 1040 ------- 1 0.0 3.0 61 110
- 0.94752 0 2 tcp 1040 ------- 1 0.0 3.0 58 104
r 0.94776 3 2 ack 40 ------- 1 3.0 0.0 44 101
+ 0.94776 2 0 ack 40 ------- 1 3.0 0.0 44 101
- 0.94776 2 0 ack 40 ------- 1 3.0 0.0 44 101
r 0.9484 2 3 tcp 1040 ------- 1 0.0 3.0 49 85
+ 0.9484 3 2 ack 40 ------- 1 3.0 0.0 49 111
- 0.9484 3 2 ack 40 ------- 1 3.0 0.0 49 111
r 0.9492 0 2 tcp 1040 ------- 1 0.0 3.0 55 98
+ 0.9492 2 3 tcp 1040 ------- 1 0.0 3.0 55 98
- 0.9492 2 3 tcp 1040 ------- 1 0.0 3.0 55 98
r 0.9496 2 0 ack 40 ------- 1 3.0 0.0 42 97
+ 0.9496 0 2 tcp 1040 ------- 1 0.0 3.0 62 112
- 0.95168 0 2 tcp 1040 ------- 1 0.0 3.0 59 106
r 0.95192 3 2 ack 40 ------- 1 3.0 0.0 45 103
+ 0.95192 2 0 ack 40 ------- 1 3.0 0.0 45 103
- 0.95192 2 0 ack 40 ------- 1 3.0 0.0 45 103
r 0.95256 2 3 tcp 1040 ------- 1 0.0 3.0 50 87
+ 0.95256 3 2 ack 40 ------- 1 3.0 0.0 50 113
- 0.95256 3 2 ack 40 ------- 1 3.0 0.0 50 113
r 0.95336 0 2 tcp 1040 ------- 1 0.0 3.0 56 100
+ 0.95336 2 3 tcp 1040 ------- 1 0.0 3.0 56 100
- 0.95336 2 3 tcp 1040 ------- 1 0.0 3.0 56 100
r 0.95376 2 0 ack 40 ------- 1 3.0 0.0 43 99
+ 0.95376 0 2 tcp 1040 ------- 1 0.0 3.0 63 114
- 0.95584 0 2 tcp 1040 ------- 1 0.0 3.0 60 108
r 0.95608 3 2 ack 40 ------- 1 3.0 0.0 46 105
+ 0.95608 2 0 ack 40 ------- 1 3.0 0.0 46 105
- 0.95608 2 0 ack 40 ------- 1 3.0 0.0 46 105
r 0.95672 2 3 tcp 1040 ------- 1 0.0 3.0 51 90
+ 0.95672 3 2 ack 40 ------- 1 3.0 0.0 51 115
- 0.95672 3 2 ack 40 ------- 1 3.0 0.0 51 115
r 0.95752 0 2 tcp 1040 ------- 1 0.0 3.0 57 102
+ 0.95752 2 3 tcp 1040 ------- 1 0.0 3.0 57 102
- 0.95752 2 3 tcp 1040 ------- 1 0.0 3.0 57 102
r 0.95792 2 0 ack 40 ------- 1 3.0 0.0 44 101
+ 0.95792 0 2 tcp 1040 ------- 1 0.0 3.0 64 116
- 0.96 0 2 tcp 1040 ------- 1 0.0 3.0 61 110
r 0.96024 3 2 ack 40 ------- 1 3.0 0.0 47 107
+ 0.96024 2 0 ack 40 ------- 1 3.0 0.0 47 107
- 0.96024 2 0 ack 40 ------- 1 3.0 0.0 47 107
r 0.96088 2 3 tcp 1040 ------- 1 0.0 3.0 52 92
+ 0.96088 3 2 ack 40 ------- 1 3.0 0.0 52 117
- 0.96088 3 2 ack 40 ------- 1 3.0 0.0 52 117
r 0.96168 0 2 tcp 1040 ------- 1 0.0 3.0 58 104
+ 0.96168 2 3 tcp 1040 ------- 1 0.0 3.0 58 104
- 0.96168 2 3 tcp 1040 ------- 1 0.0 3.0 58 104
r 0.96208 2 0 ack 40 ------- 1 3.0 0.0 45 103
+ 0.96208 0 2 tcp 1040 ------- 1 0.0 3.0 65 118
- 0.96416 0 2 tcp 1040 ------- 1 0.0 3.0 62 112
r 0.9644 3 2 ack 40 ------- 1 3.0 0.0 48 109
+ 0.9644 2 0 ack 40 ------- 1 3.0 0.0 48 109